./data/methane.lmp - created by mBuild; units = real

5 atoms
4 bonds
0 angles
0 dihedrals
0 impropers

2 atom types
1 bond types

0.000000 7.100000 xlo xhi
0.000000 7.000000 ylo yhi
0.000000 6.400000 zlo zhi

Masses

1	12.011000	# C
2	1.008000	# H

Atoms # full

1	1	1	0.000000	0.000000	0.000000	0.000000
2	1	2	0.000000	1.100000	0.000000	0.000000
3	1	2	0.000000	-1.000000	0.000000	-0.700000
4	1	2	0.000000	0.000000	1.000000	0.700000
5	1	2	0.000000	0.000000	-1.000000	0.700000

Bonds

1	1	1	2
2	1	1	3
3	1	1	4
4	1	1	5
